<?xml version="1.0" encoding="UTF-8"?>

<!-- generated on Mon Oct 12 00:00:06 2020 by Eclipse SUMO sumo Version 1.7.0
<configuration xmlns:xsi="http://www.w3.org/2001/XMLSchema-instance" xsi:noNamespaceSchemaLocation="http://sumo.dlr.de/xsd/sumoConfiguration.xsd">

    <input>
        <net-file value="/home/abhijit/projects/ns-3.31/src/spdash/mobilitydata/2.2.net.xml"/>
        <route-files value="/home/abhijit/projects/ns-3.31/src/spdash/mobilitydata/2.2.rou.xml"/>
    </input>

    <output>
        <fcd-output value="2.2.fcd.xml"/>
    </output>

</configuration>
-->

<fcd-export xmlns:xsi="http://www.w3.org/2001/XMLSchema-instance" xsi:noNamespaceSchemaLocation="http://sumo.dlr.de/xsd/fcd_file.xsd">
    <timestep time="0.00">
        <vehicle id="vehicle_0" x="724.91" y="1151.99" angle="261.57" type="DEFAULT_VEHTYPE" speed="0.00" pos="5.10" lane="133654053#3_0" slope="0.00"/>
    </timestep>
    <timestep time="1.00">
        <vehicle id="vehicle_0" x="722.86" y="1151.69" angle="261.57" type="DEFAULT_VEHTYPE" speed="2.08" pos="7.18" lane="133654053#3_0" slope="0.00"/>
    </timestep>
    <timestep time="2.00">
        <vehicle id="vehicle_0" x="718.25" y="1151.00" angle="261.57" type="DEFAULT_VEHTYPE" speed="4.66" pos="11.84" lane="133654053#3_0" slope="0.00"/>
    </timestep>
    <timestep time="3.00">
        <vehicle id="vehicle_0" x="714.52" y="1150.45" angle="261.57" type="DEFAULT_VEHTYPE" speed="3.76" pos="15.60" lane="133654053#3_0" slope="0.00"/>
    </timestep>
    <timestep time="4.00">
        <vehicle id="vehicle_0" x="709.98" y="1149.78" angle="261.57" type="DEFAULT_VEHTYPE" speed="4.60" pos="20.20" lane="133654053#3_0" slope="0.00"/>
    </timestep>
    <timestep time="5.00">
        <vehicle id="vehicle_0" x="705.36" y="1149.09" angle="261.57" type="DEFAULT_VEHTYPE" speed="4.67" pos="24.87" lane="133654053#3_0" slope="0.00"/>
    </timestep>
    <timestep time="6.00">
        <vehicle id="vehicle_0" x="701.35" y="1148.50" angle="261.57" type="DEFAULT_VEHTYPE" speed="4.05" pos="28.92" lane="133654053#3_0" slope="0.00"/>
    </timestep>
    <timestep time="7.00">
        <vehicle id="vehicle_0" x="696.97" y="1147.85" angle="261.57" type="DEFAULT_VEHTYPE" speed="4.43" pos="33.35" lane="133654053#3_0" slope="0.00"/>
    </timestep>
    <timestep time="8.00">
        <vehicle id="vehicle_0" x="693.10" y="1147.27" angle="261.57" type="DEFAULT_VEHTYPE" speed="3.91" pos="37.26" lane="133654053#3_0" slope="0.00"/>
    </timestep>
    <timestep time="9.00">
        <vehicle id="vehicle_0" x="689.19" y="1146.69" angle="261.57" type="DEFAULT_VEHTYPE" speed="3.96" pos="41.22" lane="133654053#3_0" slope="0.00"/>
    </timestep>
    <timestep time="10.00">
        <vehicle id="vehicle_0" x="684.58" y="1146.01" angle="261.57" type="DEFAULT_VEHTYPE" speed="4.65" pos="45.87" lane="133654053#3_0" slope="0.00"/>
    </timestep>
    <timestep time="11.00">
        <vehicle id="vehicle_0" x="680.73" y="1145.44" angle="261.57" type="DEFAULT_VEHTYPE" speed="3.90" pos="49.77" lane="133654053#3_0" slope="0.00"/>
    </timestep>
    <timestep time="12.00">
        <vehicle id="vehicle_0" x="676.33" y="1144.79" angle="261.57" type="DEFAULT_VEHTYPE" speed="4.45" pos="54.22" lane="133654053#3_0" slope="0.00"/>
    </timestep>
    <timestep time="13.00">
        <vehicle id="vehicle_0" x="672.13" y="1144.17" angle="261.57" type="DEFAULT_VEHTYPE" speed="4.24" pos="58.46" lane="133654053#3_0" slope="0.00"/>
    </timestep>
    <timestep time="14.00">
        <vehicle id="vehicle_0" x="667.99" y="1143.55" angle="261.57" type="DEFAULT_VEHTYPE" speed="4.19" pos="62.64" lane="133654053#3_0" slope="0.00"/>
    </timestep>
    <timestep time="15.00">
        <vehicle id="vehicle_0" x="663.42" y="1142.87" angle="261.57" type="DEFAULT_VEHTYPE" speed="4.62" pos="67.26" lane="133654053#3_0" slope="0.00"/>
    </timestep>
    <timestep time="16.00">
        <vehicle id="vehicle_0" x="659.28" y="1142.26" angle="261.57" type="DEFAULT_VEHTYPE" speed="4.19" pos="71.45" lane="133654053#3_0" slope="0.00"/>
    </timestep>
    <timestep time="17.00">
        <vehicle id="vehicle_0" x="655.47" y="1141.69" angle="261.57" type="DEFAULT_VEHTYPE" speed="3.85" pos="75.30" lane="133654053#3_0" slope="0.00"/>
    </timestep>
    <timestep time="18.00">
        <vehicle id="vehicle_0" x="650.88" y="1140.99" angle="261.31" type="DEFAULT_VEHTYPE" speed="4.64" pos="79.94" lane="133654053#3_0" slope="0.00"/>
    </timestep>
    <timestep time="19.00">
        <vehicle id="vehicle_0" x="646.30" y="1140.14" angle="259.42" type="DEFAULT_VEHTYPE" speed="4.66" pos="84.60" lane="133654053#3_0" slope="0.00"/>
    </timestep>
    <timestep time="20.00">
        <vehicle id="vehicle_0" x="641.80" y="1139.30" angle="259.42" type="DEFAULT_VEHTYPE" speed="4.58" pos="89.19" lane="133654053#3_0" slope="0.00"/>
    </timestep>
    <timestep time="21.00">
        <vehicle id="vehicle_0" x="637.28" y="1138.45" angle="259.42" type="DEFAULT_VEHTYPE" speed="4.59" pos="93.78" lane="133654053#3_0" slope="0.00"/>
    </timestep>
    <timestep time="22.00">
        <vehicle id="vehicle_0" x="632.58" y="1137.57" angle="259.42" type="DEFAULT_VEHTYPE" speed="4.78" pos="98.56" lane="133654053#3_0" slope="0.00"/>
    </timestep>
    <timestep time="23.00">
        <vehicle id="vehicle_0" x="628.75" y="1136.86" angle="259.42" type="DEFAULT_VEHTYPE" speed="3.89" pos="102.45" lane="133654053#3_0" slope="0.00"/>
    </timestep>
    <timestep time="24.00">
        <vehicle id="vehicle_0" x="624.88" y="1136.14" angle="259.42" type="DEFAULT_VEHTYPE" speed="3.94" pos="106.39" lane="133654053#3_0" slope="0.00"/>
    </timestep>
    <timestep time="25.00">
        <vehicle id="vehicle_0" x="621.20" y="1135.45" angle="259.42" type="DEFAULT_VEHTYPE" speed="3.74" pos="110.13" lane="133654053#3_0" slope="0.00"/>
    </timestep>
    <timestep time="26.00">
        <vehicle id="vehicle_0" x="617.06" y="1134.68" angle="259.42" type="DEFAULT_VEHTYPE" speed="4.21" pos="114.35" lane="133654053#3_0" slope="0.00"/>
    </timestep>
    <timestep time="27.00">
        <vehicle id="vehicle_0" x="612.71" y="1133.87" angle="259.42" type="DEFAULT_VEHTYPE" speed="4.42" pos="118.77" lane="133654053#3_0" slope="0.00"/>
    </timestep>
    <timestep time="28.00">
        <vehicle id="vehicle_0" x="608.25" y="1133.03" angle="259.42" type="DEFAULT_VEHTYPE" speed="4.54" pos="123.31" lane="133654053#3_0" slope="0.00"/>
    </timestep>
    <timestep time="29.00">
        <vehicle id="vehicle_0" x="603.53" y="1132.15" angle="259.42" type="DEFAULT_VEHTYPE" speed="4.80" pos="128.11" lane="133654053#3_0" slope="0.00"/>
    </timestep>
    <timestep time="30.00">
        <vehicle id="vehicle_0" x="598.86" y="1131.28" angle="259.42" type="DEFAULT_VEHTYPE" speed="4.75" pos="132.86" lane="133654053#3_0" slope="0.00"/>
    </timestep>
    <timestep time="31.00">
        <vehicle id="vehicle_0" x="594.50" y="1130.29" angle="257.44" type="DEFAULT_VEHTYPE" speed="4.48" pos="137.34" lane="133654053#3_0" slope="0.00"/>
    </timestep>
    <timestep time="32.00">
        <vehicle id="vehicle_0" x="589.98" y="1129.11" angle="255.39" type="DEFAULT_VEHTYPE" speed="4.66" pos="142.01" lane="133654053#3_0" slope="0.00"/>
    </timestep>
    <timestep time="33.00">
        <vehicle id="vehicle_0" x="586.29" y="1128.15" angle="255.39" type="DEFAULT_VEHTYPE" speed="3.81" pos="145.82" lane="133654053#3_0" slope="0.00"/>
    </timestep>
    <timestep time="34.00">
        <vehicle id="vehicle_0" x="582.20" y="1127.08" angle="255.39" type="DEFAULT_VEHTYPE" speed="4.23" pos="150.05" lane="133654053#3_0" slope="0.00"/>
    </timestep>
    <timestep time="35.00">
        <vehicle id="vehicle_0" x="577.89" y="1125.96" angle="255.39" type="DEFAULT_VEHTYPE" speed="4.45" pos="154.50" lane="133654053#3_0" slope="0.00"/>
    </timestep>
    <timestep time="36.00">
        <vehicle id="vehicle_0" x="573.46" y="1124.80" angle="255.39" type="DEFAULT_VEHTYPE" speed="4.58" pos="159.08" lane="133654053#3_0" slope="0.00"/>
    </timestep>
    <timestep time="37.00">
        <vehicle id="vehicle_0" x="568.66" y="1123.55" angle="255.39" type="DEFAULT_VEHTYPE" speed="4.96" pos="164.04" lane="133654053#3_0" slope="0.00"/>
    </timestep>
    <timestep time="38.00">
        <vehicle id="vehicle_0" x="564.61" y="1122.35" angle="253.74" type="DEFAULT_VEHTYPE" speed="4.23" pos="168.26" lane="133654053#3_0" slope="0.00"/>
    </timestep>
    <timestep time="39.00">
        <vehicle id="vehicle_0" x="559.99" y="1120.66" angle="249.95" type="DEFAULT_VEHTYPE" speed="4.92" pos="173.19" lane="133654053#3_0" slope="0.00"/>
    </timestep>
    <timestep time="40.00">
        <vehicle id="vehicle_0" x="556.08" y="1119.24" angle="249.95" type="DEFAULT_VEHTYPE" speed="4.16" pos="177.35" lane="133654053#3_0" slope="0.00"/>
    </timestep>
    <timestep time="41.00">
        <vehicle id="vehicle_0" x="552.60" y="1117.97" angle="249.95" type="DEFAULT_VEHTYPE" speed="3.70" pos="181.05" lane="133654053#3_0" slope="0.00"/>
    </timestep>
    <timestep time="42.00">
        <vehicle id="vehicle_0" x="548.60" y="1116.51" angle="249.95" type="DEFAULT_VEHTYPE" speed="4.26" pos="185.31" lane="133654053#3_0" slope="0.00"/>
    </timestep>
    <timestep time="43.00">
        <vehicle id="vehicle_0" x="544.81" y="1115.12" angle="249.95" type="DEFAULT_VEHTYPE" speed="4.04" pos="189.35" lane="133654053#3_0" slope="0.00"/>
    </timestep>
    <timestep time="44.00">
        <vehicle id="vehicle_0" x="540.31" y="1113.48" angle="249.95" type="DEFAULT_VEHTYPE" speed="4.78" pos="194.13" lane="133654053#3_0" slope="0.00"/>
    </timestep>
    <timestep time="45.00">
        <vehicle id="vehicle_0" x="535.84" y="1111.85" angle="249.95" type="DEFAULT_VEHTYPE" speed="4.76" pos="198.89" lane="133654053#3_0" slope="0.00"/>
    </timestep>
    <timestep time="46.00">
        <vehicle id="vehicle_0" x="531.64" y="1110.32" angle="249.95" type="DEFAULT_VEHTYPE" speed="4.48" pos="203.37" lane="133654053#3_0" slope="0.00"/>
    </timestep>
    <timestep time="47.00">
        <vehicle id="vehicle_0" x="527.36" y="1108.13" angle="243.24" type="DEFAULT_VEHTYPE" speed="4.81" pos="208.18" lane="133654053#3_0" slope="0.00"/>
    </timestep>
    <timestep time="48.00">
        <vehicle id="vehicle_0" x="523.42" y="1105.97" angle="241.26" type="DEFAULT_VEHTYPE" speed="4.50" pos="212.67" lane="133654053#3_0" slope="0.00"/>
    </timestep>
    <timestep time="49.00">
        <vehicle id="vehicle_0" x="519.47" y="1103.81" angle="241.26" type="DEFAULT_VEHTYPE" speed="4.50" pos="217.17" lane="133654053#3_0" slope="0.00"/>
    </timestep>
    <timestep time="50.00">
        <vehicle id="vehicle_0" x="516.00" y="1101.90" angle="241.26" type="DEFAULT_VEHTYPE" speed="3.97" pos="221.14" lane="133654053#3_0" slope="0.00"/>
    </timestep>
    <timestep time="51.00">
        <vehicle id="vehicle_0" x="512.69" y="1100.06" angle="240.95" type="DEFAULT_VEHTYPE" speed="3.79" pos="224.92" lane="133654053#3_0" slope="0.00"/>
    </timestep>
    <timestep time="52.00">
        <vehicle id="vehicle_0" x="509.50" y="1098.16" angle="239.41" type="DEFAULT_VEHTYPE" speed="3.71" pos="228.63" lane="133654053#3_0" slope="0.00"/>
    </timestep>
    <timestep time="53.00">
        <vehicle id="vehicle_0" x="506.19" y="1096.18" angle="239.17" type="DEFAULT_VEHTYPE" speed="3.86" pos="232.49" lane="133654053#3_0" slope="0.00"/>
    </timestep>
    <timestep time="54.00">
        <vehicle id="vehicle_0" x="502.84" y="1094.15" angle="238.79" type="DEFAULT_VEHTYPE" speed="3.92" pos="0.60" lane=":2613601359_1_0" slope="0.00"/>
    </timestep>
    <timestep time="55.00">
        <vehicle id="vehicle_0" x="499.31" y="1091.57" angle="234.19" type="DEFAULT_VEHTYPE" speed="4.38" pos="4.98" lane=":2613601359_1_0" slope="0.00"/>
    </timestep>
    <timestep time="56.00">
        <vehicle id="vehicle_0" x="495.97" y="1088.40" angle="226.68" type="DEFAULT_VEHTYPE" speed="4.61" pos="9.59" lane=":2613601359_1_0" slope="0.00"/>
    </timestep>
    <timestep time="57.00">
        <vehicle id="vehicle_0" x="493.52" y="1085.59" angle="221.86" type="DEFAULT_VEHTYPE" speed="3.73" pos="13.32" lane=":2613601359_1_0" slope="0.00"/>
    </timestep>
    <timestep time="58.00">
        <vehicle id="vehicle_0" x="490.87" y="1082.32" angle="219.27" type="DEFAULT_VEHTYPE" speed="4.21" pos="3.36" lane="133654053#4_0" slope="0.00"/>
    </timestep>
    <timestep time="59.00">
        <vehicle id="vehicle_0" x="488.41" y="1079.27" angle="218.82" type="DEFAULT_VEHTYPE" speed="3.91" pos="7.27" lane="133654053#4_0" slope="0.00"/>
    </timestep>
    <timestep time="60.00">
        <vehicle id="vehicle_0" x="485.54" y="1075.70" angle="218.82" type="DEFAULT_VEHTYPE" speed="4.58" pos="11.85" lane="133654053#4_0" slope="0.00"/>
    </timestep>
    <timestep time="61.00">
        <vehicle id="vehicle_0" x="482.50" y="1071.93" angle="218.82" type="DEFAULT_VEHTYPE" speed="4.85" pos="16.70" lane="133654053#4_0" slope="0.00"/>
    </timestep>
    <timestep time="62.00">
        <vehicle id="vehicle_0" x="479.95" y="1068.39" angle="216.21" type="DEFAULT_VEHTYPE" speed="4.37" pos="21.07" lane="133654053#4_0" slope="0.00"/>
    </timestep>
    <timestep time="63.00">
        <vehicle id="vehicle_0" x="477.83" y="1064.84" angle="210.79" type="DEFAULT_VEHTYPE" speed="4.13" pos="25.20" lane="133654053#4_0" slope="0.00"/>
    </timestep>
    <timestep time="64.00">
        <vehicle id="vehicle_0" x="475.87" y="1061.54" angle="210.79" type="DEFAULT_VEHTYPE" speed="3.84" pos="29.05" lane="133654053#4_0" slope="0.00"/>
    </timestep>
    <timestep time="65.00">
        <vehicle id="vehicle_0" x="473.62" y="1057.77" angle="210.79" type="DEFAULT_VEHTYPE" speed="4.39" pos="33.44" lane="133654053#4_0" slope="0.00"/>
    </timestep>
    <timestep time="66.00">
        <vehicle id="vehicle_0" x="471.25" y="1053.79" angle="210.79" type="DEFAULT_VEHTYPE" speed="4.63" pos="38.07" lane="133654053#4_0" slope="0.00"/>
    </timestep>
    <timestep time="67.00">
        <vehicle id="vehicle_0" x="469.09" y="1050.17" angle="210.79" type="DEFAULT_VEHTYPE" speed="4.22" pos="42.29" lane="133654053#4_0" slope="0.00"/>
    </timestep>
    <timestep time="68.00">
        <vehicle id="vehicle_0" x="466.71" y="1046.18" angle="210.79" type="DEFAULT_VEHTYPE" speed="4.64" pos="46.93" lane="133654053#4_0" slope="0.00"/>
    </timestep>
    <timestep time="69.00">
        <vehicle id="vehicle_0" x="464.54" y="1042.54" angle="210.78" type="DEFAULT_VEHTYPE" speed="4.24" pos="51.16" lane="133654053#4_0" slope="0.00"/>
    </timestep>
    <timestep time="70.00">
        <vehicle id="vehicle_0" x="462.03" y="1038.33" angle="210.78" type="DEFAULT_VEHTYPE" speed="4.91" pos="56.07" lane="133654053#4_0" slope="0.00"/>
    </timestep>
    <timestep time="71.00">
        <vehicle id="vehicle_0" x="459.69" y="1034.39" angle="210.78" type="DEFAULT_VEHTYPE" speed="4.59" pos="60.66" lane="133654053#4_0" slope="0.00"/>
    </timestep>
    <timestep time="72.00">
        <vehicle id="vehicle_0" x="458.33" y="1029.96" angle="197.91" type="DEFAULT_VEHTYPE" speed="4.67" pos="65.33" lane="133654053#4_0" slope="0.00"/>
    </timestep>
    <timestep time="73.00">
        <vehicle id="vehicle_0" x="457.29" y="1025.34" angle="192.69" type="DEFAULT_VEHTYPE" speed="4.73" pos="70.06" lane="133654053#4_0" slope="0.00"/>
    </timestep>
    <timestep time="74.00">
        <vehicle id="vehicle_0" x="456.42" y="1021.47" angle="192.69" type="DEFAULT_VEHTYPE" speed="3.96" pos="74.03" lane="133654053#4_0" slope="0.00"/>
    </timestep>
    <timestep time="75.00">
        <vehicle id="vehicle_0" x="455.57" y="1017.70" angle="192.69" type="DEFAULT_VEHTYPE" speed="3.87" pos="77.89" lane="133654053#4_0" slope="0.00"/>
    </timestep>
    <timestep time="76.00">
        <vehicle id="vehicle_0" x="454.61" y="1013.42" angle="192.69" type="DEFAULT_VEHTYPE" speed="4.38" pos="82.28" lane="133654053#4_0" slope="0.00"/>
    </timestep>
    <timestep time="77.00">
        <vehicle id="vehicle_0" x="453.52" y="1008.58" angle="192.69" type="DEFAULT_VEHTYPE" speed="4.97" pos="87.24" lane="133654053#4_0" slope="0.00"/>
    </timestep>
    <timestep time="78.00">
        <vehicle id="vehicle_0" x="452.86" y="1003.86" angle="188.08" type="DEFAULT_VEHTYPE" speed="4.81" pos="92.05" lane="133654053#4_0" slope="0.00"/>
    </timestep>
    <timestep time="79.00">
        <vehicle id="vehicle_0" x="453.21" y="999.41" angle="175.61" type="DEFAULT_VEHTYPE" speed="4.46" pos="96.51" lane="133654053#4_0" slope="0.00"/>
    </timestep>
    <timestep time="80.00">
        <vehicle id="vehicle_0" x="453.50" y="995.54" angle="175.61" type="DEFAULT_VEHTYPE" speed="3.88" pos="100.39" lane="133654053#4_0" slope="0.00"/>
    </timestep>
    <timestep time="81.00">
        <vehicle id="vehicle_0" x="453.84" y="991.12" angle="175.61" type="DEFAULT_VEHTYPE" speed="4.43" pos="104.82" lane="133654053#4_0" slope="0.00"/>
    </timestep>
    <timestep time="82.00">
        <vehicle id="vehicle_0" x="454.13" y="987.38" angle="175.61" type="DEFAULT_VEHTYPE" speed="3.75" pos="108.57" lane="133654053#4_0" slope="0.00"/>
    </timestep>
    <timestep time="83.00">
        <vehicle id="vehicle_0" x="454.55" y="983.30" angle="174.31" type="DEFAULT_VEHTYPE" speed="4.11" pos="112.68" lane="133654053#4_0" slope="0.00"/>
    </timestep>
    <timestep time="84.00">
        <vehicle id="vehicle_0" x="455.20" y="979.13" angle="171.18" type="DEFAULT_VEHTYPE" speed="4.22" pos="116.91" lane="133654053#4_0" slope="0.00"/>
    </timestep>
    <timestep time="85.00">
        <vehicle id="vehicle_0" x="455.92" y="974.50" angle="171.18" type="DEFAULT_VEHTYPE" speed="4.68" pos="121.58" lane="133654053#4_0" slope="0.00"/>
    </timestep>
    <timestep time="86.00">
        <vehicle id="vehicle_0" x="456.54" y="970.51" angle="171.18" type="DEFAULT_VEHTYPE" speed="4.04" pos="125.62" lane="133654053#4_0" slope="0.00"/>
    </timestep>
    <timestep time="87.00">
        <vehicle id="vehicle_0" x="457.11" y="966.82" angle="171.18" type="DEFAULT_VEHTYPE" speed="3.73" pos="129.36" lane="133654053#4_0" slope="0.00"/>
    </timestep>
    <timestep time="88.00">
        <vehicle id="vehicle_0" x="457.92" y="962.39" angle="169.84" type="DEFAULT_VEHTYPE" speed="4.51" pos="133.87" lane="133654053#4_0" slope="0.00"/>
    </timestep>
    <timestep time="89.00">
        <vehicle id="vehicle_0" x="459.04" y="958.44" angle="164.11" type="DEFAULT_VEHTYPE" speed="4.11" pos="137.98" lane="133654053#4_0" slope="0.00"/>
    </timestep>
    <timestep time="90.00">
        <vehicle id="vehicle_0" x="460.41" y="953.64" angle="164.11" type="DEFAULT_VEHTYPE" speed="4.99" pos="142.96" lane="133654053#4_0" slope="0.00"/>
    </timestep>
    <timestep time="91.00">
        <vehicle id="vehicle_0" x="461.77" y="948.87" angle="164.11" type="DEFAULT_VEHTYPE" speed="4.96" pos="147.92" lane="133654053#4_0" slope="0.00"/>
    </timestep>
    <timestep time="92.00">
        <vehicle id="vehicle_0" x="462.97" y="944.67" angle="164.08" type="DEFAULT_VEHTYPE" speed="4.37" pos="0.27" lane=":2614487336_7_0" slope="0.00"/>
    </timestep>
    <timestep time="93.00">
        <vehicle id="vehicle_0" x="464.38" y="939.97" angle="163.25" type="DEFAULT_VEHTYPE" speed="4.91" pos="5.18" lane=":2614487336_7_0" slope="0.00"/>
    </timestep>
    <timestep time="94.00">
        <vehicle id="vehicle_0" x="465.82" y="935.65" angle="161.64" type="DEFAULT_VEHTYPE" speed="4.55" pos="9.73" lane=":2614487336_7_0" slope="0.00"/>
    </timestep>
    <timestep time="95.00">
        <vehicle id="vehicle_0" x="467.15" y="932.12" angle="159.69" type="DEFAULT_VEHTYPE" speed="3.78" pos="13.51" lane=":2614487336_7_0" slope="0.00"/>
    </timestep>
    <timestep time="96.00">
        <vehicle id="vehicle_0" x="468.96" y="927.69" angle="157.83" type="DEFAULT_VEHTYPE" speed="4.78" pos="3.64" lane="133654053#5_0" slope="0.00"/>
    </timestep>
    <timestep time="97.00">
        <vehicle id="vehicle_0" x="470.71" y="923.46" angle="157.55" type="DEFAULT_VEHTYPE" speed="4.58" pos="8.22" lane="133654053#5_0" slope="0.00"/>
    </timestep>
    <timestep time="98.00">
        <vehicle id="vehicle_0" x="472.56" y="918.99" angle="157.55" type="DEFAULT_VEHTYPE" speed="4.84" pos="13.06" lane="133654053#5_0" slope="0.00"/>
    </timestep>
    <timestep time="99.00">
        <vehicle id="vehicle_0" x="474.30" y="914.76" angle="157.55" type="DEFAULT_VEHTYPE" speed="4.57" pos="17.64" lane="133654053#5_0" slope="0.00"/>
    </timestep>
    <timestep time="100.00">
        <vehicle id="vehicle_0" x="475.75" y="911.25" angle="157.55" type="DEFAULT_VEHTYPE" speed="3.80" pos="21.43" lane="133654053#5_0" slope="0.00"/>
    </timestep>
    <timestep time="101.00">
        <vehicle id="vehicle_0" x="477.16" y="907.73" angle="158.03" type="DEFAULT_VEHTYPE" speed="3.79" pos="25.23" lane="133654053#5_0" slope="0.00"/>
    </timestep>
    <timestep time="102.00">
        <vehicle id="vehicle_0" x="478.77" y="903.58" angle="158.88" type="DEFAULT_VEHTYPE" speed="4.44" pos="29.67" lane="133654053#5_0" slope="0.00"/>
    </timestep>
    <timestep time="103.00">
        <vehicle id="vehicle_0" x="480.42" y="899.30" angle="158.88" type="DEFAULT_VEHTYPE" speed="4.59" pos="34.27" lane="133654053#5_0" slope="0.00"/>
    </timestep>
    <timestep time="104.00">
        <vehicle id="vehicle_0" x="482.04" y="895.10" angle="158.88" type="DEFAULT_VEHTYPE" speed="4.50" pos="38.77" lane="133654053#5_0" slope="0.00"/>
    </timestep>
    <timestep time="105.00">
        <vehicle id="vehicle_0" x="483.77" y="890.63" angle="158.88" type="DEFAULT_VEHTYPE" speed="4.79" pos="43.56" lane="133654053#5_0" slope="0.00"/>
    </timestep>
    <timestep time="106.00">
        <vehicle id="vehicle_0" x="485.20" y="886.92" angle="158.88" type="DEFAULT_VEHTYPE" speed="3.98" pos="47.54" lane="133654053#5_0" slope="0.00"/>
    </timestep>
    <timestep time="107.00">
        <vehicle id="vehicle_0" x="487.33" y="883.06" angle="151.88" type="DEFAULT_VEHTYPE" speed="4.53" pos="52.07" lane="133654053#5_0" slope="0.00"/>
    </timestep>
    <timestep time="108.00">
        <vehicle id="vehicle_0" x="490.51" y="880.52" angle="128.54" type="DEFAULT_VEHTYPE" speed="4.07" pos="56.14" lane="133654053#5_0" slope="0.00"/>
    </timestep>
    <timestep time="109.00">
        <vehicle id="vehicle_0" x="493.89" y="877.83" angle="128.54" type="DEFAULT_VEHTYPE" speed="4.31" pos="60.45" lane="133654053#5_0" slope="0.00"/>
    </timestep>
    <timestep time="110.00">
        <vehicle id="vehicle_0" x="496.87" y="875.46" angle="128.54" type="DEFAULT_VEHTYPE" speed="3.81" pos="64.26" lane="133654053#5_0" slope="0.00"/>
    </timestep>
    <timestep time="111.00">
        <vehicle id="vehicle_0" x="500.03" y="873.06" angle="127.47" type="DEFAULT_VEHTYPE" speed="3.97" pos="3.40" lane=":2614492894_7_0" slope="0.00"/>
    </timestep>
    <timestep time="112.00">
        <vehicle id="vehicle_0" x="504.23" y="870.52" angle="121.30" type="DEFAULT_VEHTYPE" speed="4.91" pos="8.30" lane=":2614492894_7_0" slope="0.00"/>
    </timestep>
    <timestep time="113.00">
        <vehicle id="vehicle_0" x="508.32" y="868.60" angle="115.43" type="DEFAULT_VEHTYPE" speed="4.52" pos="12.82" lane=":2614492894_7_0" slope="0.00"/>
    </timestep>
    <timestep time="114.00">
        <vehicle id="vehicle_0" x="511.77" y="867.16" angle="113.01" type="DEFAULT_VEHTYPE" speed="3.74" pos="3.57" lane="133654053#6_0" slope="0.00"/>
    </timestep>
    <timestep time="115.00">
        <vehicle id="vehicle_0" x="515.41" y="865.64" angle="112.60" type="DEFAULT_VEHTYPE" speed="3.94" pos="7.51" lane="133654053#6_0" slope="0.00"/>
    </timestep>
    <timestep time="116.00">
        <vehicle id="vehicle_0" x="518.92" y="864.18" angle="112.60" type="DEFAULT_VEHTYPE" speed="3.80" pos="11.31" lane="133654053#6_0" slope="0.00"/>
    </timestep>
    <timestep time="117.00">
        <vehicle id="vehicle_0" x="523.02" y="862.47" angle="112.60" type="DEFAULT_VEHTYPE" speed="4.44" pos="15.76" lane="133654053#6_0" slope="0.00"/>
    </timestep>
    <timestep time="118.00">
        <vehicle id="vehicle_0" x="526.68" y="860.95" angle="112.60" type="DEFAULT_VEHTYPE" speed="3.96" pos="19.72" lane="133654053#6_0" slope="0.00"/>
    </timestep>
    <timestep time="119.00">
        <vehicle id="vehicle_0" x="530.48" y="859.37" angle="112.60" type="DEFAULT_VEHTYPE" speed="4.12" pos="23.85" lane="133654053#6_0" slope="0.00"/>
    </timestep>
    <timestep time="120.00">
        <vehicle id="vehicle_0" x="534.31" y="857.77" angle="112.60" type="DEFAULT_VEHTYPE" speed="4.14" pos="27.99" lane="133654053#6_0" slope="0.00"/>
    </timestep>
    <timestep time="121.00">
        <vehicle id="vehicle_0" x="538.65" y="855.97" angle="112.60" type="DEFAULT_VEHTYPE" speed="4.70" pos="32.69" lane="133654053#6_0" slope="0.00"/>
    </timestep>
    <timestep time="122.00">
        <vehicle id="vehicle_0" x="542.94" y="854.18" angle="112.60" type="DEFAULT_VEHTYPE" speed="4.65" pos="37.34" lane="133654053#6_0" slope="0.00"/>
    </timestep>
    <timestep time="123.00">
        <vehicle id="vehicle_0" x="547.13" y="852.44" angle="112.60" type="DEFAULT_VEHTYPE" speed="4.53" pos="41.88" lane="133654053#6_0" slope="0.00"/>
    </timestep>
    <timestep time="124.00">
        <vehicle id="vehicle_0" x="551.12" y="850.77" angle="112.60" type="DEFAULT_VEHTYPE" speed="4.33" pos="46.20" lane="133654053#6_0" slope="0.00"/>
    </timestep>
    <timestep time="125.00">
        <vehicle id="vehicle_0" x="555.47" y="848.96" angle="112.60" type="DEFAULT_VEHTYPE" speed="4.71" pos="50.91" lane="133654053#6_0" slope="0.00"/>
    </timestep>
    <timestep time="126.00">
        <vehicle id="vehicle_0" x="559.84" y="846.87" angle="115.48" type="DEFAULT_VEHTYPE" speed="4.85" pos="55.76" lane="133654053#6_0" slope="0.00"/>
    </timestep>
    <timestep time="127.00">
        <vehicle id="vehicle_0" x="564.20" y="844.71" angle="116.32" type="DEFAULT_VEHTYPE" speed="4.87" pos="60.62" lane="133654053#6_0" slope="0.00"/>
    </timestep>
    <timestep time="128.00">
        <vehicle id="vehicle_0" x="568.36" y="842.66" angle="116.32" type="DEFAULT_VEHTYPE" speed="4.64" pos="65.27" lane="133654053#6_0" slope="0.00"/>
    </timestep>
    <timestep time="129.00">
        <vehicle id="vehicle_0" x="572.12" y="840.80" angle="116.32" type="DEFAULT_VEHTYPE" speed="4.20" pos="69.46" lane="133654053#6_0" slope="0.00"/>
    </timestep>
    <timestep time="130.00">
        <vehicle id="vehicle_0" x="576.26" y="838.75" angle="116.32" type="DEFAULT_VEHTYPE" speed="4.61" pos="74.07" lane="133654053#6_0" slope="0.00"/>
    </timestep>
    <timestep time="131.00">
        <vehicle id="vehicle_0" x="580.05" y="837.80" angle="106.68" type="DEFAULT_VEHTYPE" speed="3.92" pos="77.99" lane="133654053#6_0" slope="0.00"/>
    </timestep>
    <timestep time="132.00">
        <vehicle id="vehicle_0" x="583.86" y="836.88" angle="103.66" type="DEFAULT_VEHTYPE" speed="3.91" pos="81.90" lane="133654053#6_0" slope="0.00"/>
    </timestep>
    <timestep time="133.00">
        <vehicle id="vehicle_0" x="588.09" y="835.85" angle="103.66" type="DEFAULT_VEHTYPE" speed="4.36" pos="86.26" lane="133654053#6_0" slope="0.00"/>
    </timestep>
    <timestep time="134.00">
        <vehicle id="vehicle_0" x="591.71" y="834.97" angle="103.66" type="DEFAULT_VEHTYPE" speed="3.72" pos="89.98" lane="133654053#6_0" slope="0.00"/>
    </timestep>
    <timestep time="135.00">
        <vehicle id="vehicle_0" x="595.70" y="834.00" angle="103.66" type="DEFAULT_VEHTYPE" speed="4.11" pos="94.09" lane="133654053#6_0" slope="0.00"/>
    </timestep>
    <timestep time="136.00">
        <vehicle id="vehicle_0" x="600.54" y="832.82" angle="103.66" type="DEFAULT_VEHTYPE" speed="4.99" pos="99.08" lane="133654053#6_0" slope="0.00"/>
    </timestep>
    <timestep time="137.00">
        <vehicle id="vehicle_0" x="604.56" y="831.94" angle="102.57" type="DEFAULT_VEHTYPE" speed="4.12" pos="103.20" lane="133654053#6_0" slope="0.00"/>
    </timestep>
    <timestep time="138.00">
        <vehicle id="vehicle_0" x="609.50" y="831.78" angle="91.86" type="DEFAULT_VEHTYPE" speed="4.94" pos="108.14" lane="133654053#6_0" slope="0.00"/>
    </timestep>
    <timestep time="139.00">
        <vehicle id="vehicle_0" x="613.89" y="831.64" angle="91.86" type="DEFAULT_VEHTYPE" speed="4.40" pos="112.53" lane="133654053#6_0" slope="0.00"/>
    </timestep>
    <timestep time="140.00">
        <vehicle id="vehicle_0" x="618.39" y="831.50" angle="91.86" type="DEFAULT_VEHTYPE" speed="4.50" pos="117.03" lane="133654053#6_0" slope="0.00"/>
    </timestep>
    <timestep time="141.00">
        <vehicle id="vehicle_0" x="622.68" y="831.36" angle="91.86" type="DEFAULT_VEHTYPE" speed="4.29" pos="121.33" lane="133654053#6_0" slope="0.00"/>
    </timestep>
    <timestep time="142.00">
        <vehicle id="vehicle_0" x="626.49" y="831.33" angle="90.77" type="DEFAULT_VEHTYPE" speed="3.81" pos="125.14" lane="133654053#6_0" slope="0.00"/>
    </timestep>
    <timestep time="143.00">
        <vehicle id="vehicle_0" x="630.16" y="831.88" angle="83.00" type="DEFAULT_VEHTYPE" speed="3.72" pos="128.86" lane="133654053#6_0" slope="0.00"/>
    </timestep>
    <timestep time="144.00">
        <vehicle id="vehicle_0" x="634.55" y="832.55" angle="81.42" type="DEFAULT_VEHTYPE" speed="4.44" pos="133.30" lane="133654053#6_0" slope="0.00"/>
    </timestep>
    <timestep time="145.00">
        <vehicle id="vehicle_0" x="638.59" y="833.15" angle="81.42" type="DEFAULT_VEHTYPE" speed="4.08" pos="137.38" lane="133654053#6_0" slope="0.00"/>
    </timestep>
    <timestep time="146.00">
        <vehicle id="vehicle_0" x="642.29" y="833.71" angle="81.42" type="DEFAULT_VEHTYPE" speed="3.74" pos="141.12" lane="133654053#6_0" slope="0.00"/>
    </timestep>
    <timestep time="147.00">